data_24695-ICSD
_audit_creation_method         'generated by CrystalMaker 8.7.3'
_publ_section_comment
;
ICSD code: 24695


Systematic name: Iron oxide (0.97/1)

Structural formula: Fe.974 O

Chemical formula (sum): Fe0.974 O1


Crystal structure data from: Willis, B.T.M., Rooksby, H.P. Change of structure 
of ferrous oxide at low temperature. 

;
_cell_length_a                   4.3088(0)
_cell_length_b                   4.3088(0)
_cell_length_c                   4.3088(0)
_cell_angle_alpha               90.0000(0)
_cell_angle_beta                90.0000(0)
_cell_angle_gamma               90.0000(0)


loop_
_symmetry_equiv_pos_as_xyz
'+z,+y,-x'
'+z,1/2+y,1/2-x'
'1/2+z,1/2+y,-x'
'1/2+z,+y,1/2-x'
'+y,+x,-z'
'+y,1/2+x,1/2-z'
'1/2+y,1/2+x,-z'
'1/2+y,+x,1/2-z'
'+x,+z,-y'
'+x,1/2+z,1/2-y'
'1/2+x,1/2+z,-y'
'1/2+x,+z,1/2-y'
'+z,+x,-y'
'+z,1/2+x,1/2-y'
'1/2+z,1/2+x,-y'
'1/2+z,+x,1/2-y'
'+y,+z,-x'
'+y,1/2+z,1/2-x'
'1/2+y,1/2+z,-x'
'1/2+y,+z,1/2-x'
'+x,+y,-z'
'+x,1/2+y,1/2-z'
'1/2+x,1/2+y,-z'
'1/2+x,+y,1/2-z'
'+z,-y,+x'
'+z,1/2-y,1/2+x'
'1/2+z,1/2-y,+x'
'1/2+z,-y,1/2+x'
'+y,-x,+z'
'+y,1/2-x,1/2+z'
'1/2+y,1/2-x,+z'
'1/2+y,-x,1/2+z'
'+x,-z,+y'
'+x,1/2-z,1/2+y'
'1/2+x,1/2-z,+y'
'1/2+x,-z,1/2+y'
'+z,-x,+y'
'+z,1/2-x,1/2+y'
'1/2+z,1/2-x,+y'
'1/2+z,-x,1/2+y'
'+y,-z,+x'
'+y,1/2-z,1/2+x'
'1/2+y,1/2-z,+x'
'1/2+y,-z,1/2+x'
'+x,-y,+z'
'+x,1/2-y,1/2+z'
'1/2+x,1/2-y,+z'
'1/2+x,-y,1/2+z'
'-z,+y,+x'
'-z,1/2+y,1/2+x'
'1/2-z,1/2+y,+x'
'1/2-z,+y,1/2+x'
'-y,+x,+z'
'-y,1/2+x,1/2+z'
'1/2-y,1/2+x,+z'
'1/2-y,+x,1/2+z'
'-x,+z,+y'
'-x,1/2+z,1/2+y'
'1/2-x,1/2+z,+y'
'1/2-x,+z,1/2+y'
'-z,+x,+y'
'-z,1/2+x,1/2+y'
'1/2-z,1/2+x,+y'
'1/2-z,+x,1/2+y'
'-y,+z,+x'
'-y,1/2+z,1/2+x'
'1/2-y,1/2+z,+x'
'1/2-y,+z,1/2+x'
'-x,+y,+z'
'-x,1/2+y,1/2+z'
'1/2-x,1/2+y,+z'
'1/2-x,+y,1/2+z'
'-z,-y,-x'
'-z,1/2-y,1/2-x'
'1/2-z,1/2-y,-x'
'1/2-z,-y,1/2-x'
'-y,-x,-z'
'-y,1/2-x,1/2-z'
'1/2-y,1/2-x,-z'
'1/2-y,-x,1/2-z'
'-x,-z,-y'
'-x,1/2-z,1/2-y'
'1/2-x,1/2-z,-y'
'1/2-x,-z,1/2-y'
'-z,-x,-y'
'-z,1/2-x,1/2-y'
'1/2-z,1/2-x,-y'
'1/2-z,-x,1/2-y'
'-y,-z,-x'
'-y,1/2-z,1/2-x'
'1/2-y,1/2-z,-x'
'1/2-y,-z,1/2-x'
'-x,-y,-z'
'-x,1/2-y,1/2-z'
'1/2-x,1/2-y,-z'
'1/2-x,-y,1/2-z'
'-z,-y,+x'
'-z,1/2-y,1/2+x'
'1/2-z,1/2-y,+x'
'1/2-z,-y,1/2+x'
'-y,-x,+z'
'-y,1/2-x,1/2+z'
'1/2-y,1/2-x,+z'
'1/2-y,-x,1/2+z'
'-x,-z,+y'
'-x,1/2-z,1/2+y'
'1/2-x,1/2-z,+y'
'1/2-x,-z,1/2+y'
'-z,-x,+y'
'-z,1/2-x,1/2+y'
'1/2-z,1/2-x,+y'
'1/2-z,-x,1/2+y'
'-y,-z,+x'
'-y,1/2-z,1/2+x'
'1/2-y,1/2-z,+x'
'1/2-y,-z,1/2+x'
'-x,-y,+z'
'-x,1/2-y,1/2+z'
'1/2-x,1/2-y,+z'
'1/2-x,-y,1/2+z'
'-z,+y,-x'
'-z,1/2+y,1/2-x'
'1/2-z,1/2+y,-x'
'1/2-z,+y,1/2-x'
'-y,+x,-z'
'-y,1/2+x,1/2-z'
'1/2-y,1/2+x,-z'
'1/2-y,+x,1/2-z'
'-x,+z,-y'
'-x,1/2+z,1/2-y'
'1/2-x,1/2+z,-y'
'1/2-x,+z,1/2-y'
'-z,+x,-y'
'-z,1/2+x,1/2-y'
'1/2-z,1/2+x,-y'
'1/2-z,+x,1/2-y'
'-y,+z,-x'
'-y,1/2+z,1/2-x'
'1/2-y,1/2+z,-x'
'1/2-y,+z,1/2-x'
'-x,+y,-z'
'-x,1/2+y,1/2-z'
'1/2-x,1/2+y,-z'
'1/2-x,+y,1/2-z'
'+z,-y,-x'
'+z,1/2-y,1/2-x'
'1/2+z,1/2-y,-x'
'1/2+z,-y,1/2-x'
'+y,-x,-z'
'+y,1/2-x,1/2-z'
'1/2+y,1/2-x,-z'
'1/2+y,-x,1/2-z'
'+x,-z,-y'
'+x,1/2-z,1/2-y'
'1/2+x,1/2-z,-y'
'1/2+x,-z,1/2-y'
'+z,-x,-y'
'+z,1/2-x,1/2-y'
'1/2+z,1/2-x,-y'
'1/2+z,-x,1/2-y'
'+y,-z,-x'
'+y,1/2-z,1/2-x'
'1/2+y,1/2-z,-x'
'1/2+y,-z,1/2-x'
'+x,-y,-z'
'+x,1/2-y,1/2-z'
'1/2+x,1/2-y,-z'
'1/2+x,-y,1/2-z'
'+z,+y,+x'
'+z,1/2+y,1/2+x'
'1/2+z,1/2+y,+x'
'1/2+z,+y,1/2+x'
'+y,+x,+z'
'+y,1/2+x,1/2+z'
'1/2+y,1/2+x,+z'
'1/2+y,+x,1/2+z'
'+x,+z,+y'
'+x,1/2+z,1/2+y'
'1/2+x,1/2+z,+y'
'1/2+x,+z,1/2+y'
'+z,+x,+y'
'+z,1/2+x,1/2+y'
'1/2+z,1/2+x,+y'
'1/2+z,+x,1/2+y'
'+y,+z,+x'
'+y,1/2+z,1/2+x'
'1/2+y,1/2+z,+x'
'1/2+y,+z,1/2+x'
'+x,+y,+z'
'+x,1/2+y,1/2+z'
'1/2+x,1/2+y,+z'
'1/2+x,+y,1/2+z'

loop_
_atom_site_label
_atom_site_type_symbol
_atom_site_occupancy
_atom_site_fract_x
_atom_site_fract_y
_atom_site_fract_z
   Fe1    Fe 1.0000      0.0000    0.0000    0.0000
    O1    O  1.0000      0.5000    0.5000    0.5000

