
#(C) 2015 by Fachinformationszentrum Karlsruhe.  All rights reserved.
data_41750-ICSD
_database_code_ICSD 41750
_audit_creation_date 2000-07-15
_audit_update_record 2006-04-01
_chemical_name_systematic 'Tin sulfide'
_chemical_formula_structural 'Sn S'
_chemical_formula_sum 'S1 Sn1'
_chemical_name_structure_type GeS
_chemical_name_mineral Herzenbergite
_exptl_crystal_density_diffrn 5.19
_publ_section_title 'Structure of thin films of Sn S and Sn Se'
loop_
_citation_id
_citation_journal_full
_citation_year
_citation_journal_volume
_citation_page_first
_citation_page_last
_citation_journal_id_ASTM
primary Kristallografiya 1979 24 874 875 KRISAJ
loop_
_publ_author_name
'Avilov, A.S.'
'Imamov, R.M.'
'Navasardyan, S.N.'
_cell_length_a 11.19
_cell_length_b 3.98
_cell_length_c 4.33
_cell_angle_alpha 90.
_cell_angle_beta 90.
_cell_angle_gamma 90.
_cell_volume 192.84
_cell_formula_units_Z 4
_symmetry_space_group_name_H-M 'P n m a'
_symmetry_Int_Tables_number 62
_refine_ls_R_factor_all 0.167
loop_
_symmetry_equiv_pos_site_id
_symmetry_equiv_pos_as_xyz
1 'x+1/2, y, -z+1/2'
2 'x, -y+1/2, z'
3 '-x+1/2, y+1/2, z+1/2'
4 '-x, -y, -z'
5 '-x+1/2, -y, z+1/2'
6 '-x, y+1/2, -z'
7 'x+1/2, -y+1/2, -z+1/2'
8 'x, y, z'
loop_
_atom_type_symbol
_atom_type_oxidation_number
Sn2+ 2
S2- -2
loop_
_atom_site_label
_atom_site_type_symbol
_atom_site_symmetry_multiplicity
_atom_site_Wyckoff_symbol
_atom_site_fract_x
_atom_site_fract_y
_atom_site_fract_z
_atom_site_B_iso_or_equiv
_atom_site_occupancy
_atom_site_attached_hydrogens
Sn1 Sn2+ 4 c 0.122 0.25 0.097 0.74 1. 0
S1 S2- 4 c 0.353 0.25 0.01 0.74 1. 0
#End of TTdata_41750-ICSD